CRYSTAL
 PRIMVEC
    4.05    0.00    0.00
    0.00    4.05    0.00
    0.00    0.00    4.05
 PRIMCOORD
    4 1
   13    0.000    0.000    0.000
   13    2.025    2.025    0.000
   13    2.025    0.000    2.025
   13    0.000    2.025    2.025